% Model:              VLR_3_01V03.mph
% Version:            COMSOL 5.5.0.292
% Date:               Jun 21 2020, 22:00
% Dimension:          2
% Nodes:              710
% Expressions:        1
% Description:        Electric potential
% Length unit:        cm
% x                       y                        V2 (V)
-0.7500019010240866       -1.2990370081180354      0
-0.7353116056775352       -1.5682869749316115      0
-0.5130322520396061       -1.4095381897512285      0
-0.4555759277057035       -1.66790211585832        0
-0.2604737829988119       -1.4772113621179224      0
-0.15768171697151534      -1.71509934213882        0
0                         -1.5                     0
0.14255063361661932       -1.7169461992697286      0
0.2604719155835074        -1.4772116913943845      0
0.44199856229628476       -1.6652503954779347      0
0.5130287522557871        -1.4095394635691725      0
0.715075859742308         -1.5497001750267183      0
0.7499985491162486        -1.299038943343702       0
-0.9641829662037242       -1.1490653626676715      0
-0.9927478541606715       -1.415112808560282       0
-1.1490678503537954       -0.964180001495212       0
-1.2181025081053878       -1.2217674416558661      0
0.9786494171964613        -1.4079771913635677      0
0.964180001495212         -1.1490678503537954      0
-1.299038943343702        -0.7499985491162486      0
-1.4136012577129895       -0.9934155510234269      0
-1.4095394635691725       -0.5130287522557871      0
-1.5598589344391616       -0.7286166544585889      0
1.2116945644268295        -1.2169163223452724      0
1.1490653626676715        -0.9641829662037242      0
1.2990370081180354        -0.7500019010240866      0
1.409988680504817         -0.986760607676125       0
-1.6574542651583175       -0.4448327822043418      0
-1.4772116913943845       -0.2604719155835074      0
-1.7058879361242931       -0.14833701889381812     0
-1.5                      0                        0
1.4095381897512285        -0.5130322520396061      0
1.5590199362685717        -0.7219551642997288      0
1.654158186034655         -0.4385613143103334      0
1.4772113621179224        -0.2604737829988119      0
-1.704227131509687        0.14999969945860409      0
-1.4772113621179224       0.2604737829988119       0
1.701512374886061         -0.1458174993066822      0
1.5                       0                        0
-1.6505098072675024       0.44335179592008345      0
-1.4095381897512285       0.5130322520396061       0
1.6984937362620305        0.15094192003318269      0
1.4772116327258282        0.26047224830966603      0
-1.5483031526135027       0.7211312347774789       0
-1.2990370081180354       0.7500019010240866       0
1.6461596046788465        0.4413146598063315       0
1.409538927274959         0.5130302257143889       0
-1.4027493758955893       0.9806699307666344       0
-1.1490653626676715       0.9641829662037242       0
1.5452166852770168        0.7188543757487148       0
1.2990379448877274        0.7500002784945276       0
-1.2086273262955416       1.206832741364905        0
-0.964180001495212        1.1490678503537954       0
1.3991134550747313        0.9768289536653362       0
1.149066349397491         0.9641817902669201       0
-0.9797109672566884       1.3934057877224213       0
-0.7499985491162486       1.299038943343702        0
1.2116614224369855        1.2106885069835938       0
0.9641809003173116        1.1490670961537874       0
-0.721608818401071        1.5425604050622186       0
-0.5130287522557871       1.4095394635691725       0
0.7500010960695672        1.2990374728599814       0
0.9857893303833397        1.4128189271170262       0
-0.44558010702388856      1.650382681685155        0
-0.2604719155835074       1.4772116913943845       0
0.5130311766445627        1.4095385811643097       0
0.7256525635471431        1.5671592569836013       0
-0.15749355055519743      1.7058872883076477       0
0                         1.5                      0
0.2604734995933032        1.4772114120902318       0
0.1394929811837309        1.7130332801968078       0
0.4384997479771786        1.6712726151387687       0
-0.33559083692853975      -1.0559830878713243      0
-0.49791296092672555      -1.200867471181221       0
-0.2542730240097232       -1.2748902812638234      0
-0.7224316661010183       -1.080783275136374       0
-0.5154869928550371       -0.9423648700740519      0
-0.7222755375327486       -0.8657112977818942      0
-0.9192376482851391       -0.919239982798402       0
0                         -1.3                     0
-0.11497840868272771      -1.0636496577529344      0
0.09782484452475158       -1.1174553783567447      0
0.2542726437033044        -1.2748903571147334      0
0.4979157602383561        -1.2008663105051534      0
0.30622391290393264       -1.0296382173485725      0
0.5088846250438044        -0.9834594295522884      0
0.7224343899853524        -1.0807814543960734      0
0.919239982798402         -0.9192376482851391      0
0.6364404030423496        -0.8288727233748105      0
-0.8393779978517609       -0.6806733654758349      0
-1.0807814543960734       -0.7224343899853524      0
-1.001027086736774        -0.5241902213759123      0
-1.2008663105051534       -0.4979157602383561      0
1.080783275136374         -0.7224316661010183      0
0.8180625433491273        -0.6807525662486439      0
-1.2748903571147334       -0.2542726437033044      0
-1.0301182127266688       -0.30833504979462356     0
-1.1236663921776666       -0.1061581050628636      0
-1.3                      0                        0
0.9551199453878503        -0.5112821969618074      0
1.200867471181221         -0.49791296092672555     0
1.0667425611228618        -0.3449452974759014      0
1.2748902812638234        -0.2542730240097232      0
-1.0645330712159027       0.10468300304384867      0
-1.2748902812638234       0.2542730240097232       0
-1.0609430136078517       0.3236576769267923       0
-1.200867471181221        0.49791296092672555      0
1.3                       0                        0
1.071443741528314         -0.13619780996888944     0
1.1006442244214307        0.081982250007517        0
1.2748906521460097        0.2542711644499273       0
-0.9469040302677286       0.5082366107650425       0
-1.080783275136374        0.7224316661010183       0
1.2008677952948812        0.49791217922803493      0
1.0215257373930795        0.290213941340573        0
-0.8625426794987237       0.7092899791702842       0
-0.919239982798402        0.9192376482851391       0
0.9825894404542121        0.5026303131879784       0
1.0807839418764207        0.7224306686333752       0
-0.6826458501083007       0.8234907972540242       0
-0.7224343899853524       1.0807814543960734       0
0.9192404122938322        0.9192372187884178       0
0.8290029698322644        0.6627289868804636       0
-0.5136169195965107       0.9821453719936611       0
-0.4979157602383561       1.2008663105051534       0
0.7180009316690901        0.8485648899178024       0
0.7224343213203094        1.0807815002943304       0
-0.2542726437033044       1.2748903571147334       0
-0.3063846251970296       1.026116308911131        0
0.49791447436405417       1.2008668436670102       0
0.5089275788319694        0.9391260303149191       0
-0.10414206091784646      1.1103154174006866       0
0                         1.3                      0
0.3417393402247779        1.0583175379328185       0
0.25427361196236126       1.2748901639983008       0
0.11970257170996206       1.0569844665058659       0
-0.27879068273942265      -5                       0
-0.695671925900202        -3.9625572623201406      0
-1.4290231667260271       -5                       0
-0.6650140473340289       -3.0823739307792697      0
-0.08419180220698214      -3.2787105753900807      0
-0.22816013640295724      -2.8417849185834525      0
-0.4780817340279421       -2.5809142376839365      0
-0.1432330598194227       -2.520193369120291       0
0.43774160539207946       -3.1276034912272377      0
0.22971996137358944       -2.746732479943683       0
0.7555631233234277        -2.743352767092741       0
0.4162337026100744        -3.911211411582544       0
1.0065465634839237        -3.250148487772888       0
0.8714982966214572        -5                       0
-1.4711673461778378       -3.1769009287035384      0
-2.03454765480271         -4.09141495714816        0
-2.648337976421377        -5                       0
-0.9104921357504606       -2.6294994042929076      0
-1.827037771846821        -2.5237821076522624      0
-1.3596621541340088       -2.40278279844239        0
-0.6185370038030608       -2.239240822395006       0
-0.2685689470978927       -2.257644500599026       0
0.11777072330083913       -2.2801476740713946      0
0.5668591088130577        -2.288055957937937       0
0.9438202487104588        -2.373804423700782       0
1.5447308669036661        -3.0778070707439733      0
1.2843259476238624        -2.6205868805538013      0
1.5660092692846548        -3.8889918731885116      0
2.0267611140334685        -5                       0
-6.649651478171791        -3.90967983141796        0
-7.999999999999999        -5                       0
-5.801437841039912        -5                       0
-5.189941308303954        -3.7946938403361488      0
-4.0851509474648475       -5                       0
-3.4546965879283644       -3.9252648108850576      0
-2.6367489068254675       -2.9822840865999027      0
-1.7163521897264729       -2.0394018944566987      0
-2.283287455171628        -2.0605391268232056      0
-1.941578336505724        -1.693962257645681       0
-0.9871109726158355       -2.1300529825870496      0
-1.322896836169533        -1.9119243650405868      0
1.186937558540743         -2.1737806373581123      0
0.9254155052512034        -2.043245875561314       0
-0.6955024067140256       -1.8826207571863742      0
-0.371465826612209        -1.9547130520207436      0
-0.03628339951933091      -1.9788094976003183      0
0.3121302427008445        -1.9663111432052212      0
0.6398858276975973        -1.8686571348740157      0
2.212879555290224         -3.1325116530653667      0
1.9141455260307707        -2.6238412957394357      0
1.6302799952827094        -2.11009640966007        0
2.021332797686545         -2.215049600068553       0
3.2492760599221624        -5                       0
2.7841981866322243        -3.8456715401522596      0
2.814672380137093         -2.9422722921395943      0
-5.3608065993679705       -2.63985150120226        0
-6.243103636452545        -2.939946166216841       0
-7.999999999999999        -2.808651501695911       0
-4.132914299371581        -2.6791409496578735      0
-4.987601633578846        -1.9123227613231524      0
-3.10465591683743         -1.8652284832316197      0
-1.5946377256543736       -1.6315661736448863      0
-2.3433119126836677       -1.471689717988749       0
-2.8641387921909436       -1.1920706848583515      0
-2.5049080520753177       -0.8943188642818471      0
-1.8607494235138193       -1.3342914964519377      0
-1.0050138661595474       -1.7355321203675314      0
-1.2746041087269588       -1.5322102207449655      0
1.2557544743243254        -1.8517961145471         0
0.9613506857965084        -1.7061865358657318      0
1.613017764756985         -1.64490709873679        0
2.485226824438309         -2.339637504623177       0
2.135177173030527         -1.7916308621308843      0
4.56278091796898          -5                       0
4.041417791447523         -3.8755412137781073      0
3.5350081402383737        -3.0750881863377533      0
3.0852405894013923        -2.302244572851639       0
6.063225879780335         -5                       0
5.3502494959895035        -3.703683742546355       0
-6.301159101124616        -1.733208757176098       0
-7.999999999999999        -0.8574179533639148      0
-4.1846420207736745       -1.5491855010936275      0
-5.204637107287071        -1.0385119739010247      0
-2.993127653977009        -0.6781958627947435      0
-3.478683676271657        -1.0544983847680094      0
-2.5791823339097313       -0.4062819244569562      0
-1.5142258126634807       -1.2773588395027122      0
-2.0761161332077434       -0.9956393724578105      0
-2.1947905909676635       -0.5868462624317273      0
-1.7198636117706116       -0.9987941588509895      0
1.2533230305671543        -1.5157427238216765      0
1.888611021207533         -1.3224098876082642      0
2.303880069759009         -1.2989484797747828      0
1.5149608941296606        -1.277766594652746       0
2.732595462095748         -1.6604355354213545      0
2.6648330446225765        -1.1086017641508432      0
4.5467682301115415        -2.727179305714024       0
3.826485406549661         -2.0491960254569612      0
3.2786819809592185        -1.6789628737633535      0
7.999999999999999         -5                       0
6.593306935585611         -3.4739193625561313      0
7.999999999999999         -2.985098341733597       0
5.529155119157197         -2.3591863465994045      0
2.051395560940517         -0.9484168745736593      0
2.4027230353900144        -0.8576847224660159      0
-6.311964731185875        0.06424055747042041      0
-7.999999999999999        1.0516501154823068       0
-4.242606869396866        -0.6069739195543579      0
-4.988365758461475        -0.016674496002716997    0
-2.9862450606294733       -0.14253682064224238     0
-3.559749858004123        -0.3593127542102218      0
-5.143056823014862        1.1215345752257213       0
-2.23827205368863         -0.18155899900628272     0
-2.5583575950825646       0.04767962396479039      0
-1.8546883901295406       -0.6771358656994703      0
-1.9344554489407615       -0.3391002840819146      0
1.7136430216723866        -0.9826585301205474      0
3.0949721447010283        -1.1714748598851952      0
2.8290124699361154        -0.7248259824978696      0
4.540531293092817         -1.5934279492689662      0
3.689955952110601         -1.2742258980699617      0
6.617211118586621         -1.7955477444574306      0
7.999999999999999         -1.0516501154823068      0
5.329038744215382         -1.011094792603815       0
1.8428644924236348        -0.6638569556937497      0
2.1566517251905237        -0.5649426717785965      0
2.5123222700849763        -0.4179939242644768      0
-6.42435655169992         2.1073903390038926       0
-7.999999999999999        2.985098341733597        0
-6.799200917982512        3.7424452147851532       0
-7.999999999999999        5                        0
-5.21600789124188         2.272669820872859        0
-6.063225879780335        5                        0
-4.54164566764453         1.9168807294582664       0
-1.9556394575761236       0.0041092237441524345    0
-4.039562795583194        0.3763395926494534       0
-2.8758033733868307       0.37361429653208605      0
-3.3454898942850573       0.23164000776521582      0
-4.0615738189271795       1.3248731993370724       0
-2.462821532574515        0.45400061583364343      0
-2.6476873664744116       0.7317480597783556       0
-2.2114632340798313       0.20032674482660098      0
3.3588575180347484        -0.5759321704182445      0
2.8836968275688917        -0.21737706859955133     0
4.17837617080801          -0.443766918894575       0
7.999999999999999         0.8574179533639148       0
6.217056724648604         0.08354815761931707      0
5.013124442884402         0.034462761632447735     0
1.9198540215427617        -0.33127481506371853     0
2.2069269921483388        -0.18032159249757887     0
2.5004821469965823        0.018182848367239646     0
2.776212720672332         0.23661462078425097      0
-5.491825096767663        3.517811466339648        0
-4.459085492894548        2.7901459513855342       0
-4.56278091796898         5                        0
-3.9102593580462948       2.1314218499845228       0
-1.9152826155798952       0.3377897734164738       0
-3.2418418311725117       0.9446357074614583       0
-3.4767385489619542       1.6654114585712914       0
-2.627101864672916        1.1521994814196257       0
-2.348552559690989        0.8345134892967377       0
-2.1375084833869202       0.5665942142556564       0
7.999999999999999         2.808651501695911        0
6.295469725033688         1.6981129886103725       0
6.214722674815773         2.940243463882743        0
6.6364478220044205        3.88913281686204         0
7.999999999999999         5                        0
5.801437841039912         5                        0
3.362014606856542         0.23355625456523035      0
4.202172315503103         0.5594251396496039       0
5.138969152804369         0.9841844628686492       0
1.9430868547108577        0.006788025204466252     0
2.198270687764919         0.20440658212575064      0
2.4879815887556527        0.4503161265167293       0
2.8874840822865075        0.6935310738885462       0
-4.0222298387229936       3.85818303258387         0
-3.5725451049439276       3.0439088090740367       0
-3.2492760599221624       5                        0
-3.1842347503008703       2.2843422139016507       0
-2.8372016317847253       2.8397188221286336       0
-1.8313434776392956       0.6625478306761036       0
-2.8607769870885464       1.701259563638566        0
-2.361764722809511        1.4676715103149633       0
-2.2029482654573447       1.184103449552691        0
-2.013247845579827        0.9184351149404542       0
4.946966789628488         1.9064885478615547       0
5.326836742114296         2.6725347717190218       0
5.153510833767934         3.7004018721398864       0
4.0851509474648475        5                        0
3.4169141656549864        1.0318705880262038       0
4.103635354010304         1.5162436896996676       0
1.906564810305547         0.34271750188999867      0
2.8393383373840813        1.184015274095732        0
2.1320101475953823        0.589126352611388        0
2.4261892919466685        0.9567803333565207       0
-2.786585882146601        3.811194066823468        0
-2.0267611140334685       5                        0
-2.517984143091129        2.3566472886004712       0
-2.2096216162139357       3.1063953666240827       0
-1.6912807586594962       0.9700204934427189       0
-2.25774494478544         1.8954431028690877       0
-2.001728474526435        1.5337111324012123       0
-1.8340385876565464       1.2353283651624136       0
4.069287164991592         2.6568015926755075       0
3.4028567491433876        3.862832823637813        0
2.648337976421377         5                        0
3.0748458147268383        1.8199521818536402       0
1.8199070936305084        0.6637322105329432       0
2.436190919366893         1.4569919138811398       0
1.9879394881248524        0.9265301916924478       0
2.119013807787769         1.23560618761989         0
-1.5460637583831878       3.8786969500609314       0
-0.8714982966214572       5                        0
-0.3861118859974089       3.9071088218277468       0
0.27879068273942265       5                        0
-1.526437293076027        3.0593265483750107       0
-1.8219401353619342       2.4530199474988246       0
-1.49854184506925         1.240965563477091        0
-1.704012619795286        1.8938929869444268       0
-1.5986011746833444       1.5338775799395425       0
1.4290231667260271        5                        0
1.9712834321584647        3.966500073131355        0
0.743611010964811         3.876514343202428        0
0.10124695248438238       3.2584015517919327       0
2.489570140056114         2.8532934038801274       0
2.248004572348028         1.985823740781231        0
1.6776807874245994        0.9641071758351254       0
2.0037231400579896        1.5617613474741765       0
1.815651331518902         1.2513319106091683       0
-0.9838651181853727       3.2437271126168357       0
-0.4250046749804619       3.092421795122098        0
-1.2074462094738232       2.673733963316446        0
-1.3303341210978947       2.1857003757622464       0
-1.2595115365974145       1.4766458768417914       0
-1.2954437410614088       1.807256761343763        0
-0.15262099951836836      2.8211520547384885       0
0.2103570498012866        2.843189692877222        0
1.3838872600680971        3.002107148078635        0
0.6395372076842201        3.025450320245187        0
1.7528900142654271        2.3375603007417762       0
1.7862973246052127        1.8732610513799448       0
1.4982566709215848        1.2473654127621427       0
1.6171808847211342        1.5675532805736858       0
-0.6542580891341306       2.6912851111010445       0
-0.9395356017626705       2.3463020721972967       0
-0.9372381870497805       2.0151213419839342       0
-0.9763974561236495       1.6767534720854564       0
-0.22131874416233221      2.4469098277652757       0
0.07362800596608039       2.5966568435748894       0
1.2469180844481973        2.375749140347198        0
0.43426460512990883       2.5879877699708524       0
0.8434009308994455        2.57968245500237         0
1.3677862485606558        1.9429316233810483       0
1.2682749490348686        1.5135307266497389       0
-0.5492272863531831       2.2248823970819247       0
-0.6650512318001507       1.8251997513085827       0
-0.19946544293165708      2.1578753599738096       0
0.1347914573626481        2.276891551137267        0
0.9444518566955757        2.1258980244504655       0
0.5560615472585426        2.2346121818935623       0
0.9921315016896024        1.7407704288669752       0
-0.34445909033254496      1.9177446671317684       0
-0.015619664068070818     1.9542056920945003       0
0.318626371547646         1.9549292761804509       0
0.6608340619160319        1.8822840146199689       0
-0.2639317740727498       -0.8079119770017619      0
-0.5580351216787108       -0.654086732768688       0
0.06545752197555672       -0.8430822384994241      0
0.3782693485411133        -0.7610293485018886      0
0.5913336021787622        -0.6166613021046757      0
-0.7657176608652092       -0.3970600792030552      0
-0.08929938646712848      -0.5951134967601033      0
-0.2995891938726615       -0.5011037552858072      0
-0.49986689208012913      -0.3837824417422816      0
0.7514133678834737        -0.5021191225563636      0
0.14202325300139423       -0.5276901833463973      0
0.3981118976852472        -0.5009949521845867      0
0.5817945581584927        -0.37564854403268355     0
-0.8572450681457575       -0.07635120213630826     0
-0.5743546284919079       -0.15200614141483115     0
-0.6249100747145995       0.07116185504011188      0
-0.06432489671594116      -0.317945682764879       0
-0.3120381905789133       -0.21743590352111278     0
0.8363970389736053        -0.2779522641556685      0
0.3013222629628542        -0.21215266543470104     0
0.6149481742909002        -0.14547608786393237     0
-0.8175202141105835       0.2531827858886217       0
-0.38121152330402763      0.04512163254922567      0
-0.5171167638962338       0.278571051056539        0
-0.052882009008812354     0.005100967531896476     0
0.8407683967403629        0.04196648972441155      0
0.2447313827868054        0.15926908610375662      0
0.5144586146191864        0.09640654457897971      0
-0.6587805775237288       0.542885874212951        0
-0.2377743534497606       0.27942082744588487      0
-0.3834525822164724       0.4787171202962407       0
0.034837935430132985      0.32049145761574516      0
0.22863236374567886       0.3899751910878318       0
0.7392790782057144        0.36884559290581576      0
0.4420107704173909        0.35579714490642955      0
-0.3872967136747215       0.756820270800494        0
-0.15321216038415933      0.5497488795949143       0
0.1033722349319788        0.5722074649855621       0
0.3182094951620861        0.5421108018276655       0
0.5445976179835033        0.6321757297218743       0
-0.08106365305143866      0.8316601256520583       0
0.2728210701351715        0.7992624577987997       0
-4.443851379206303        -50                      0
-4.5                      -49.95                   0
-4.5                      -50.05                   0
-4.388530759329911        -49.95                   0
-4.3868747574953035       -50.05                   0
-4.257560840084464        -49.95                   0
-4.253797278072292        -50.05                   0
-4.118084579129502        -49.95000000000001       0
-4.114384593928954        -50.05                   0
-3.9784884917014116       -49.95                   0
-3.974913929727957        -50.05                   0
-3.8388924042733206       -49.95                   0
-3.8354432655269597       -50.05                   0
-3.699296316845229        -49.95                   0
-3.695972601325962        -50.05                   0
-3.5597002294171385       -49.95                   0
-3.5565019371249647       -50.05                   0
-3.420104141989048        -49.95                   0
-3.417031272923967        -50.05                   0
-3.280508054560956        -49.95                   0
-3.2775606087229696       -50.05                   0
-3.1409119671328654       -49.95                   0
-3.138089944521972        -50.05                   0
-3.0013158797047748       -49.95                   0
-2.998619280320974        -50.04999999999998       0
-2.8617197922766833       -49.95                   0
-2.8591486161199766       -50.05                   0
-2.7221237048485927       -49.95                   0
-2.719677951918979        -50.05                   0
-2.582527617420501        -49.95                   0
-2.5802072877179816       -50.05                   0
-2.4429315299924106       -49.95                   0
-2.440736623516984        -50.05                   0
-2.303335442564319        -49.95                   0
-2.3012659593159865       -50.05                   0
-2.1637393551362276       -49.95                   0
-2.161795295114989        -50.05                   0
-2.024143267708137        -49.95                   0
-2.0223246309139915       -50.05                   0
-1.884547180280046        -49.95                   0
-1.8828539667129933       -50.05                   0
-1.744951092851954        -49.95                   0
-1.7433833025119958       -50.04999999999998       0
-1.6053550054238628       -49.95                   0
-1.6039126383109983       -50.05                   0
-1.4657589179957717       -49.95                   0
-1.4644419741100005       -50.05                   0
-1.3261628305676805       -49.95000000000001       0
-1.324971309909003        -50.05                   0
-1.186566743139589        -49.95                   0
-1.1855006457080055       -50.05                   0
-1.0469706557114977       -49.95                   0
-1.046029981507008        -50.05                   0
-0.9073745682834067       -49.95                   0
-0.9065593173060105       -50.05                   0
-0.7677784808553154       -49.95                   0
-0.7670886531050127       -50.05                   0
-0.6281823934272239       -49.95                   0
-0.6276179889040152       -50.05                   0
-0.48858630599913244      -49.95                   0
-0.4881473247030179       -50.05                   0
-0.34899021857104096      -49.95                   0
-0.3486766605020195       -50.05                   0
-0.20939413114295036      -49.95                   0
-0.209205996301022        -50.05                   0
-0.06979804371485887      -49.95                   0
-0.06973533210002447      -50.05                   0
0.06973533210097305       -50.05                   0
0.06979804371323262       -49.95                   0
0.20920599630197104       -50.04999999999998       0
0.209394131141325         -49.95                   0
0.34867666050296897       -50.05                   0
0.3489902185694165        -49.95                   0
0.48814732470396743       -50.05                   0
0.4885863059975089        -49.95                   0
0.6276179889049651        -50.05                   0
0.6281823934256003        -49.95                   0
0.7670886531059633        -50.04999999999998       0
0.7677784808536919        -49.95                   0
0.9065593173069618        -50.05                   0
0.907374568281784         -49.95                   0
1.04602998150796          -50.05                   0
1.0469706557098757        -49.95                   0
1.1855006457089576        -50.05                   0
1.1865667431379672        -49.95                   0
1.3249713099099556        -50.04999999999998       0
1.3261628305660593        -49.95                   0
1.4644419741109538        -50.05                   0
1.465758917994151         -49.95                   0
1.6039126383119524        -50.05                   0
1.6053550054222427        -49.95                   0
1.7433833025129502        -50.05                   0
1.744951092850335         -49.95                   0
1.8828539667139481        -50.05                   0
1.8845471802784266        -49.95                   0
2.0223246309149463        -50.05                   0
2.024143267706518         -49.95                   0
2.1617952951159447        -50.05                   0
2.1637393551346102        -49.95                   0
2.3012659593169422        -50.05                   0
2.3033354425627017        -49.95                   0
2.4407366235179415        -50.05                   0
2.442931529990793         -49.95                   0
2.58020728771894          -50.05                   0
2.5825276174188856        -49.95                   0
2.7196779519199374        -50.05                   0
2.722123704846977         -49.95                   0
2.859148616120936         -50.05                   0
2.8617197922750686        -49.95                   0
2.9986192803219343        -50.05                   0
3.001315879703161         -49.95                   0
3.138089944522933         -50.05                   0
3.1409119671312524        -49.95                   0
3.277560608723932         -50.05                   0
3.280508054559344         -49.95                   0
3.4170312729249295        -50.05                   0
3.4201041419874367        -49.95                   0