% Model:              VLR_3_01V03.mph
% Version:            COMSOL 5.5.0.292
% Date:               Jun 21 2020, 21:59
% Dimension:          2
% Nodes:              4837
% Expressions:        1
% Description:        Electric potential
% Length unit:        cm
% x                       y                        V2 (V)
-8.056005026605293        -4.5                     0
-7.9999999999999964       -4.55                    0
-8.000000000000004        -4.450000000000001       0
-8.11166992632957         -4.450000000000001       0
-8.112350180091601        -4.55                    0
-8.242961081335064        -4.450000000000001       0
-8.244509798454           -4.55                    0
-8.382652576763233        -4.450000000000001       0
-8.384213842914443        -4.55                    0
-8.522431203361448        -4.450000000000001       0
-8.523981884657385        -4.549999999999999       0
-8.662209829959663        -4.450000000000001       0
-8.663749926400326        -4.55                    0
-8.801988456557877        -4.450000000000001       0
-8.803517968143268        -4.55                    0
-8.941767083156092        -4.450000000000001       0
-8.94328600988621         -4.549999999999999       0
-9.081545709754307        -4.450000000000001       0
-9.083054051629151        -4.55                    0
-9.221324336352522        -4.450000000000001       0
-9.222822093372093        -4.55                    0
-9.361102962950737        -4.450000000000001       0
-9.362590135115035        -4.549999999999999       0
-9.500881589548952        -4.450000000000001       0
-9.502358176857976        -4.55                    0
-9.640660216147166        -4.450000000000001       0
-9.642126218600918        -4.549999999999999       0
-9.780438842745381        -4.450000000000001       0
-9.78189426034386         -4.549999999999999       0
-9.920217469343596        -4.450000000000001       0
-9.921662302086801        -4.550000000000001       0
-10.05999609594181        -4.450000000000001       0
-10.061430343829743       -4.55                    0
-10.199774722540026       -4.450000000000001       0
-10.201198385572685       -4.55                    0
-10.33955334913824        -4.450000000000001       0
-10.340966427315626       -4.550000000000001       0
-10.479331975736455       -4.450000000000001       0
-10.480734469058568       -4.55                    0
-10.61911060233467        -4.450000000000001       0
-10.620502510801511       -4.550000000000001       0
-10.758889228932885       -4.450000000000001       0
-10.760270552544451       -4.550000000000001       0
-10.8986678555311         -4.450000000000001       0
-10.900038594287391       -4.549999999999999       0
-11.038446482129315       -4.450000000000001       0
-11.039806636030333       -4.55                    0
-11.17822510872753        -4.450000000000001       0
-11.179574677773275       -4.55                    0
-11.318003735325744       -4.450000000000001       0
-11.319342719516214       -4.549999999999999       0
-11.45778236192396        -4.450000000000001       0
-11.459110761259154       -4.55                    0
-11.597560988522174       -4.450000000000001       0
-11.598878803002098       -4.55                    0
-11.737339615120389       -4.450000000000001       0
-11.738646844745038       -4.55                    0
-11.877118241718604       -4.450000000000001       0
-11.87841488648798        -4.55                    0
-12.016896868316818       -4.45                    0
-12.018182928230921       -4.55                    0
-12.156675494915033       -4.45                    0
-12.15795096997386        -4.55                    0
-12.296454121513248       -4.450000000000001       0
-12.297719011716802       -4.55                    0
-12.436232748111463       -4.450000000000001       0
-12.437487053459742       -4.55                    0
-12.576011374709678       -4.450000000000001       0
-12.577255095202682       -4.55                    0
-12.71579000130789        -4.450000000000001       0
-12.717023136945627       -4.55                    0
-12.855568627906107       -4.450000000000001       0
-12.856791178688567       -4.55                    0
-12.995347254504322       -4.450000000000001       0
-12.996559220431509       -4.550000000000001       0
-13.135125881102539       -4.450000000000001       0
-13.136327262174447       -4.55                    0
-13.27490450770075        -4.450000000000001       0
-13.27609530391739        -4.55                    0
-13.414683134298965       -4.450000000000001       0
-13.41586334566033        -4.55                    0
-13.55446176089718        -4.450000000000001       0
-13.555631387403272       -4.55                    0
-13.694240387495396       -4.450000000000001       0
-13.695399429146212       -4.55                    0
-13.83401901409361        -4.450000000000001       0
-13.835167470889154       -4.55                    0
-13.973797640691824       -4.450000000000001       0
-13.974935512632097       -4.55                    0
-14.11357626729004        -4.450000000000001       0
-14.114703554375039       -4.55                    0
-14.253354893888254       -4.450000000000001       0
-14.254471596117977       -4.55                    0
-14.39313352048647        -4.450000000000001       0
-14.39423963786092        -4.55                    0
-14.532912147084684       -4.450000000000001       0
-14.53400767960386        -4.55                    0
-14.672690773682898       -4.450000000000001       0
-14.673775721346802       -4.55                    0
-14.812469400281113       -4.450000000000001       0
-14.81354376308974        -4.55                    0
-14.952248026879328       -4.450000000000001       0
-14.953311804832683       -4.55                    0
-15.092026653477545       -4.450000000000001       0
-15.093079846575625       -4.55                    0
-15.231805280075758       -4.450000000000001       0
-15.232847888318569       -4.55                    0
-15.371583906673973       -4.450000000000001       0
-15.372615930061507       -4.55                    0
-15.511362533272187       -4.450000000000001       0
-15.512383971804447       -4.55                    0
-15.651141159870402       -4.450000000000001       0
-15.652152013547388       -4.55                    0
-15.790919786468619       -4.450000000000001       0
-15.791920055290328       -4.55                    0
-15.930698413066832       -4.450000000000001       0
-15.93168809703327        -4.55                    0
-16.070477039665047       -4.450000000000001       0
-16.07145613877621        -4.55                    0
-16.21025566626326        -4.450000000000001       0
-16.211224180519153       -4.55                    0
-16.350034292861476       -4.450000000000001       0
-16.350992222262093       -4.55                    0
-16.48981291945969        -4.450000000000001       0
-16.490760264005033       -4.55                    0
-16.629591546057906       -4.450000000000001       0
-16.630528305747976       -4.55                    0
-16.76937017265612        -4.450000000000001       0
-16.770296347490916       -4.55                    0
-16.909148799254336       -4.450000000000001       0
-16.910064389233856       -4.549999999999999       0
-17.04892742585255        -4.450000000000001       0
-17.0498324309768         -4.55                    0
-17.188706052450765       -4.450000000000001       0
-17.18960047271974        -4.55                    0
-17.32848467904898        -4.450000000000001       0
-17.329368514462683       -4.55                    0
-17.468263305647195       -4.450000000000001       0
-17.469136556205623       -4.55                    0
-17.60804193224541        -4.450000000000001       0
-17.608904597948563       -4.55                    0
-17.747820558843625       -4.450000000000001       0
-17.748672639691506       -4.55                    0
-17.88759918544184        -4.450000000000001       0
-17.888440681434446       -4.55                    0
-18.027377812040054       -4.450000000000001       0
-18.028208723177386       -4.549999999999999       0
-18.16715643863827        -4.450000000000001       0
-18.167976764920326       -4.55                    0
-18.306935065236484       -4.450000000000001       0
-18.30774480666327        -4.55                    0
-18.4467136918347         -4.450000000000001       0
-18.44751284840621        -4.55                    0
-18.586492318432914       -4.450000000000001       0
-18.587280890149152       -4.55                    0
-18.72627094503113        -4.450000000000001       0
-18.727048931892092       -4.55                    0
-18.866049571629343       -4.450000000000001       0
-18.866816973635036       -4.55                    0
-19.005828198227558       -4.450000000000001       0
-19.006585015377976       -4.55                    0
-19.145606824825773       -4.450000000000001       0
-19.14635305712092        -4.55                    0
-19.285385451423988       -4.450000000000001       0
-19.28612109886386        -4.55                    0
-19.425164078022203       -4.450000000000001       0
-19.425889140606802       -4.55                    0
-19.564942704620417       -4.450000000000001       0
-19.565657182349746       -4.55                    0
-19.704721331218632       -4.450000000000001       0
-19.70542522409269        -4.550000000000001       0
-19.844499957816847       -4.450000000000001       0
-19.845193265835633       -4.55                    0
-19.984278584415062       -4.450000000000001       0
-19.984961307578573       -4.549999999999999       0
-20.124057211013277       -4.450000000000001       0
-20.124729349321516       -4.55                    0
-20.26383583761149        -4.450000000000001       0
-20.264497391064456       -4.55                    0
-20.403614464209706       -4.450000000000001       0
-20.4042654328074         -4.55                    0
-20.54339309080792        -4.450000000000001       0
-20.54403347455034        -4.55                    0
-20.683171717406136       -4.450000000000001       0
-20.683801516293283       -4.55                    0
-20.82295034400435        -4.450000000000001       0
-20.823569558036226       -4.55                    0
-20.962728970602566       -4.450000000000001       0
-20.963337599779166       -4.55                    0
-21.10250759720078        -4.450000000000001       0
-21.10310564152211        -4.55                    0
-21.242286223798995       -4.450000000000001       0
-21.242873683265053       -4.55                    0
-21.38206485039721        -4.450000000000001       0
-21.382641725007996       -4.550000000000001       0
-21.521843476995425       -4.450000000000001       0
-21.52240976675094        -4.55                    0
-21.66162210359364        -4.450000000000001       0
-21.662177808493876       -4.55                    0
-21.801400730191855       -4.450000000000001       0
-21.80194585023682        -4.55                    0
-21.94117935679007        -4.450000000000001       0
-21.941713891979763       -4.55                    0
-22.080957983388284       -4.450000000000001       0
-22.081481933722706       -4.55                    0
-22.2207366099865         -4.450000000000001       0
-22.22124997546565        -4.55                    0
-22.360515236584714       -4.450000000000001       0
-22.36101801720859        -4.55                    0
-22.50029386318293        -4.450000000000001       0
-22.500786058951533       -4.55                    0
-22.640072489781144       -4.450000000000001       0
-22.640554100694473       -4.55                    0
-22.77985111637936        -4.450000000000001       0
-22.780322142437416       -4.55                    0
-22.919629742977573       -4.450000000000001       0
-22.920090184180356       -4.55                    0
-23.059408369575788       -4.450000000000001       0
-23.0598582259233         -4.550000000000001       0
-23.199186996174003       -4.450000000000001       0
-23.199626267666243       -4.55                    0
-23.33896562277722        -4.450000000000001       0
-23.339394309409187       -4.55                    0
-23.478744249375413       -4.450000000000001       0
-23.47916235115213        -4.55                    0
-23.618522875973603       -4.450000000000001       0
-23.61893039289507        -4.55                    0
-23.758301502571797       -4.450000000000001       0
-23.758698434638013       -4.55                    0
-23.898080129169987       -4.450000000000001       0
-23.898466476380953       -4.55                    0
-24.037858755768177       -4.450000000000001       0
-24.0382345181239         -4.55                    0
-24.17763738236637        -4.450000000000001       0
-24.17800255986684        -4.55                    0
-24.317416008964564       -4.450000000000001       0
-24.31777060160978        -4.55                    0
-24.457194635562754       -4.450000000000001       0
-24.457538643352724       -4.55                    0
-24.596973262160944       -4.450000000000001       0
-24.597306685095667       -4.55                    0
-24.736751888759134       -4.450000000000001       0
-24.73707472683861        -4.550000000000001       0
-24.876530515357324       -4.450000000000001       0
-24.87684276858155        -4.55                    0
-25.016309141955524       -4.450000000000001       0
-25.016610810324497       -4.55                    0
-25.156087768553707       -4.450000000000001       0
-25.156378852067434       -4.55                    0
-25.2958663951519         -4.450000000000001       0
-25.296146893810377       -4.55                    0
-25.43564502175009        -4.450000000000001       0
-25.43591493555332        -4.55                    0
-25.575423648348284       -4.450000000000001       0
-25.57568297729626        -4.549999999999999       0
-25.71520227494648        -4.450000000000001       0
-25.715451019039204       -4.55                    0
-25.854980901544668       -4.450000000000001       0
-25.855219060782147       -4.55                    0
-25.994759528142858       -4.450000000000001       0
-25.99498710252509        -4.55                    0
-26.13453815474105        -4.450000000000001       0
-26.13475514426803        -4.55                    0
-26.27431678133924        -4.450000000000001       0
-26.274523186010974       -4.55                    0
-26.41409540793743        -4.450000000000001       0
-26.414291227753917       -4.550000000000001       0
-26.553874034535625       -4.45                    0
-26.55405926949686        -4.55                    0
-26.69365266113382        -4.450000000000001       0
-26.693827311239804       -4.549999999999999       0
-26.833431287732008       -4.45                    0
-26.83359535298274        -4.55                    0
-26.973209914330198       -4.450000000000001       0
-26.973363394725684       -4.550000000000001       0
-27.11298854092839        -4.450000000000001       0
-27.113131436468628       -4.55                    0
-27.25276716752659        -4.450000000000001       0
-27.252899478211567       -4.549999999999999       0
-27.39254579412477        -4.450000000000001       0
-27.392667519954518       -4.55                    0
-27.532324420722965       -4.450000000000001       0
-27.532435561697454       -4.55                    0
-27.672103047321162       -4.450000000000001       0
-27.672203603440394       -4.55                    0
-27.81188167391935        -4.450000000000001       0
-27.811971645183338       -4.55                    0
-27.951660300517545       -4.450000000000001       0
-27.95173968692628        -4.55                    0
-28.091438927115732       -4.450000000000001       0
-28.091507728669225       -4.550000000000001       0
-28.23121755371393        -4.450000000000001       0
-28.231275770412168       -4.55                    0
-28.370996180312112       -4.450000000000001       0
-28.37104381215511        -4.549999999999999       0
-28.510774806910305       -4.450000000000001       0
-28.510811853898048       -4.55                    0
-28.650553433508502       -4.450000000000001       0
-28.650579895640995       -4.550000000000001       0
-28.790332060106692       -4.450000000000001       0
-28.79034793738393        -4.55                    0
-28.930110686704886       -4.450000000000001       0
-28.930115979126874       -4.549999999999999       0
-29.069889313303072       -4.450000000000001       0
-29.069884020869818       -4.55                    0
-29.20966793990127        -4.450000000000001       0
-29.209652062612758       -4.55                    0
-29.3494201043557         -4.55                    0
-29.349446566499466       -4.450000000000001       0
-29.489188146098638       -4.55                    0
-29.489225193097656       -4.450000000000001       0
-29.628956187841577       -4.55                    0
-29.62900381969585        -4.450000000000001       0
-29.76872422958452        -4.55                    0
-29.768782446294047       -4.450000000000001       0
-29.908492271327457       -4.55                    0
-29.908561072892244       -4.450000000000001       0
-30.048260313070397       -4.55                    0
-30.048339699490434       -4.450000000000001       0
-30.18802835481334        -4.55                    0
-30.188118326088624       -4.450000000000001       0
-30.327796396556277       -4.55                    0
-30.32789695268682        -4.450000000000001       0
-30.467564438299217       -4.55                    0
-30.467675579285014       -4.450000000000001       0
-30.60733248004216        -4.55                    0
-30.60745420588321        -4.450000000000001       0
-30.747100521785097       -4.55                    0
-30.747232832481398       -4.450000000000001       0
-30.886868563528036       -4.55                    0
-30.887011459079595       -4.450000000000001       0
-31.02663660527098        -4.55                    0
-31.026790085677792       -4.450000000000001       0
-31.166404647013916       -4.55                    0
-31.166568712275982       -4.450000000000001       0
-31.306172688756856       -4.55                    0
-31.306347338874176       -4.450000000000001       0
-31.445940730499792       -4.55                    0
-31.446125965472373       -4.450000000000001       0
-31.58570877224274        -4.55                    0
-31.58590459207057        -4.450000000000001       0
-31.725476813985676       -4.55                    0
-31.725683218668756       -4.450000000000001       0
-31.865244855728612       -4.55                    0
-31.86546184526695        -4.450000000000001       0
-32.00501289747156        -4.55                    0
-32.00524047186514        -4.450000000000001       0
-32.1447809392145         -4.55                    0
-32.145019098463344       -4.450000000000001       0
-32.28454898095744        -4.55                    0
-32.28479772506153        -4.450000000000001       0
-32.42431702270038        -4.55                    0
-32.424576351659724       -4.450000000000001       0
-32.56408506444332        -4.55                    0
-32.56435497825792        -4.450000000000001       0
-32.70385310618626        -4.55                    0
-32.70413360485612        -4.450000000000001       0
-32.8436211479292         -4.55                    0
-32.84391223145431        -4.450000000000001       0
-32.98338918967214        -4.55                    0
-32.9836908580525         -4.45                    0
-33.12315723141508        -4.55                    0
-33.1234694846507         -4.450000000000001       0
-33.26292527315802        -4.55                    0
-33.26324811124889        -4.450000000000001       0
-33.40269331490096        -4.55                    0
-33.403026737847085       -4.450000000000001       0
-33.5424613566439         -4.55                    0
-33.54280536444527        -4.45                    0
-33.68222939838684        -4.55                    0
-33.68258399104347        -4.450000000000001       0
-33.82199744012978        -4.55                    0
-33.82236261764167        -4.450000000000001       0
-33.96176548187272        -4.55                    0
-33.96214124423986        -4.450000000000001       0
-34.10153352361566        -4.55                    0
-34.10191987083805        -4.45                    0
-34.2413015653586         -4.55                    0
-34.241698497436246       -4.450000000000001       0
-34.38106960710154        -4.55                    0
-34.38147712403444        -4.450000000000001       0
-34.52083764884448        -4.55                    0
-34.52125575063263        -4.45                    0
-34.66060569058742        -4.55                    0
-34.66103437723083        -4.45                    0
-34.80037373233036        -4.55                    0
-34.80081300382902        -4.45                    0
-34.94014177407329        -4.55                    0
-34.94059163042722        -4.450000000000001       0
-35.07990981581623        -4.55                    0
-35.08037025702541        -4.45                    0
-35.21967785755917        -4.55                    0
-35.2201488836236         -4.45                    0
-35.35944589930211        -4.55                    0
-35.359927510221794       -4.45                    0
-35.49921394104505        -4.55                    0
-35.499706136819995       -4.450000000000001       0
-35.63898198278799        -4.55                    0
-35.63948476341818        -4.45                    0
-35.77875002453093        -4.55                    0
-35.779263390016375       -4.45                    0
-35.91851806627387        -4.55                    0
-35.91904201661457        -4.45                    0
-36.05828610801681        -4.55                    0
-36.05882064321277        -4.45                    0
-36.19805414975975        -4.55                    0
-36.19859926981096        -4.45                    0
-36.33782219150269        -4.55                    0
-36.33837789640915        -4.45                    0
-36.47759023324563        -4.55                    0
-36.47815652300735        -4.45                    0
-36.61735827498857        -4.55                    0
-36.61793514960554        -4.45                    0
-36.75712631673151        -4.55                    0
-36.75771377620374        -4.45                    0
-36.89689435847445        -4.55                    0
-36.89749240280192        -4.45                    0
-37.03666240021739        -4.55                    0
-37.037271029400124       -4.45                    0
-37.17643044196033        -4.55                    0
-37.17704965599832        -4.45                    0
-37.31619848370327        -4.55                    0
-37.31682828259651        -4.45                    0
-37.45596652544621        -4.55                    0
-37.456606909194704       -4.45                    0
-37.59573456718915        -4.55                    0
-37.5963855357929         -4.45                    0
-37.73550260893209        -4.55                    0
-37.7361641623911         -4.45                    0
-37.87527065067503        -4.55                    0
-37.875942788989285       -4.45                    0
-38.01503869241797        -4.55                    0
-38.01572141558748        -4.45                    0
-38.15480673416091        -4.55                    0
-38.15550004218567        -4.45                    0
-38.29457477590385        -4.55                    0
-38.29527866878387        -4.45                    0
-38.43434281764679        -4.55                    0
-38.435057295382066       -4.45                    0
-38.57411085938973        -4.55                    0
-38.57483592198025        -4.45                    0
-38.713878901132674       -4.55                    0
-38.71461454857845        -4.45                    0
-38.853646942875606       -4.55                    0
-38.85439317517665        -4.45                    0
-38.993414984618546       -4.55                    0
-38.99417180177484        -4.45                    0
-39.133183026361486       -4.55                    0
-39.133950428373026       -4.45                    0
-39.272951068104426       -4.55                    0
-39.27372905497123        -4.45                    0
-39.412719109847366       -4.55                    0
-39.41350768156942        -4.45                    0
-39.552487151590306       -4.55                    0
-39.553286308167614       -4.450000000000001       0
-39.692255193333246       -4.55                    0
-39.69306493476581        -4.45                    0
-39.832023235076186       -4.55                    0
-39.832843561363994       -4.45                    0
-39.971791276819125       -4.55                    0
-39.97262218796219        -4.45                    0
-40.111559318562065       -4.55                    0
-40.11240081456038        -4.450000000000001       0
-40.251327360305005       -4.55                    0
-40.252179441158574       -4.45                    0
-40.391095402047945       -4.55                    0
-40.39195806775677        -4.45                    0
-40.530863443790885       -4.55                    0
-40.53173669435496        -4.450000000000001       0
-40.670631485533825       -4.55                    0
-40.671515320953155       -4.450000000000001       0
-40.810399527276765       -4.55                    0
-40.81129394755134        -4.45                    0
-40.950167569019705       -4.55                    0
-40.951072574149535       -4.45                    0
-41.089935610762645       -4.55                    0
-41.09085120074773        -4.45                    0
-41.229703652505584       -4.55                    0
-41.23062982734592        -4.45                    0
-41.369471694248524       -4.55                    0
-41.370408453944115       -4.45                    0
-41.509239735991464       -4.55                    0
-41.5101870805423         -4.45                    0
-41.649007777734404       -4.55                    0
-41.6499657071405         -4.450000000000001       0
-41.788775819477344       -4.55                    0
-41.789744333738696       -4.45                    0
-41.928543861220284       -4.55                    0
-41.92952296033688        -4.45                    0
-42.068311902963224       -4.55                    0
-42.06930158693508        -4.45                    0
-42.20807994470617        -4.55                    0
-42.20908021353327        -4.45                    0
-42.3478479864491         -4.55                    0
-42.34885884013147        -4.45                    0
-42.48761602819204        -4.55                    0
-42.48863746672966        -4.45                    0
-42.62738406993498        -4.55                    0
-42.62841609332785        -4.45                    0
-42.76715211167792        -4.55                    0
-42.76819471992605        -4.450000000000001       0
-42.90692015342086        -4.55                    0
-42.90797334652424        -4.45                    0
-43.0466881951638         -4.55                    0
-43.04775197312243        -4.45                    0
-43.18645623690674        -4.55                    0
-43.18753059972062        -4.45                    0
-43.32622427864968        -4.55                    0
-43.32730922631881        -4.45                    0
-43.46599232039262        -4.55                    0
-43.46708785291701        -4.45                    0
-43.60576036213556        -4.55                    0
-43.6068664795152         -4.45                    0
-43.7455284038785         -4.55                    0
-43.74664510611339        -4.45                    0
-43.88529644562144        -4.55                    0
-43.88642373271159        -4.45                    0
-44.02506448736438        -4.55                    0
-44.02620235930978        -4.45                    0
-44.16483252910732        -4.55                    0
-44.16598098590797        -4.45                    0
-44.30460057085026        -4.55                    0
-44.30575961250616        -4.45                    0
-44.4443686125932         -4.55                    0
-44.44553823910435        -4.45                    0
-44.58413665433614        -4.55                    0
-44.585316865702545       -4.450000000000001       0
-44.72390469607908        -4.55                    0
-44.72509549230074        -4.45                    0
-44.86367273782202        -4.55                    0
-44.86487411889893        -4.45                    0
-45.00344077956496        -4.55                    0
-45.004652745497125       -4.45                    0
-45.1432088213079         -4.549999999999999       0
-45.14443137209532        -4.45                    0
-45.28297686305084        -4.55                    0
-45.284209998693505       -4.45                    0
-45.42274490479378        -4.55                    0
-45.423988625291706       -4.45                    0
-45.56251294653672        -4.55                    0
-45.56376725188989        -4.45                    0
-45.70228098827967        -4.55                    0
-45.703545878488086       -4.45                    0
-45.8420490300226         -4.549999999999999       0
-45.84332450508629        -4.45                    0
-45.98181707176554        -4.55                    0
-45.98310313168447        -4.45                    0
-46.12158511350848        -4.55                    0
-46.122881758282674       -4.45                    0
-46.26135315525142        -4.55                    0
-46.26266038488086        -4.45                    0
-46.40112119699436        -4.55                    0
-46.40243901147906        -4.45                    0
-46.5408892387373         -4.549999999999999       0
-46.54221763807725        -4.450000000000001       0
-46.68065728048024        -4.55                    0
-46.68199626467545        -4.45                    0
-46.82042532222318        -4.55                    0
-46.82177489127364        -4.450000000000001       0
-46.96019336396612        -4.55                    0