% Model:              VLR_3_01V03.mph
% Version:            COMSOL 5.5.0.292
% Date:               Jun 21 2020, 22:03
% Dimension:          2
% Nodes:              2463
% Expressions:        1
% Description:        Electric potential
% Length unit:        cm
% x                       y                        V2 (V)
-34.943887271241785       -35                      0
-35                       -34.95                   0
-35                       -35.05                   0
-34.888304498803905       -34.95                   0
-34.887244586163234       -35.05                   0
-34.75702018133717        -34.95                   0
-34.75460308153609        -35.05                   0
-34.617255433529635       -34.95                   0
-34.61480991066226        -35.05                   0
-34.4773877348085         -34.95                   0
-34.47495209283812        -35.05                   0
-34.337520036087355       -34.95                   0
-34.33509427502068        -35.05                   0
-34.19765233736623        -34.95                   0
-34.19523645720324        -35.05                   0
-34.0577846386451         -34.95                   0
-34.055378639379015       -35.05                   0
-33.91791693992397        -34.95000000000001       0
-33.91552082155479        -35.05                   0
-33.77804924120283        -34.95                   0
-33.77566300373746        -35.05                   0
-33.638181542481696       -34.95                   0
-33.635805185920134       -35.05                   0
-33.49831384376057        -34.95000000000001       0
-33.495947368095884       -35.05                   0
-33.35844614503944        -34.95                   0
-33.35608955027162        -35.05                   0
-33.2185784463183         -34.95                   0
-33.216231732454304       -35.05                   0
-33.078710747597164       -34.95                   0
-33.07637391463699        -35.05                   0
-32.93884304887604        -34.95                   0
-32.93651609681304        -35.05                   0
-32.798975350154905       -34.95                   0
-32.79665827898907        -35.05                   0
-32.659107651433764       -34.95                   0
-32.65680046117191        -35.05                   0
-32.51923995271263        -34.95                   0
-32.51694264335475        -35.05                   0
-32.379372253991505       -34.95                   0
-32.37708482553067        -35.05                   0
-32.23950455527037        -34.95000000000001       0
-32.23722700770658        -35.05                   0
-32.09963685654923        -34.949999999999996      0
-32.09736918988929        -35.05                   0
-31.959769157828095       -34.95                   0
-31.957511372072023       -35.05                   0
-31.81990145910697        -34.95                   0
-31.817653554251095       -35.05                   0
-31.680033760385832       -34.95                   0
-31.677795736430188       -35.05                   0
-31.5401660616647         -34.95                   0
-31.537937918609266       -35.05                   0
-31.40029836294357        -34.95                   0
-31.39808010078835        -35.05                   0
-31.26043066422244        -34.95                   0
-31.25822228296743        -35.05                   0
-31.120562965501303       -34.95                   0
-31.118364465146513       -35.05                   0
-30.980695266780163       -34.95                   0
-30.97850664732559        -35.05                   0
-30.840827568055502       -34.95                   0
-30.838648829504677       -35.05                   0
-30.70095986933083        -34.95                   0
-30.698791011683756       -35.05                   0
-30.561092170612795       -34.95                   0
-30.558933193862842       -35.05                   0
-30.42122447189476        -34.95                   0
-30.41907537604192        -35.05                   0
-30.28135677317026        -34.95                   0
-30.279217558221006       -35.05                   0
-30.141489074445772       -34.95                   0
-30.13935974040009        -35.05                   0
-30.001621375727698       -34.95                   0
-29.99950192257917        -35.05                   0
-29.861753677009634       -34.95                   0
-29.85964410475826        -35.05                   0
-29.72188597828517        -34.95                   0
-29.71978628693734        -35.05                   0
-29.582018279560714       -34.95                   0
-29.579928469116425       -35.05                   0
-29.442150580842636       -34.95                   0
-29.440070651295503       -35.05                   0
-29.302282882124576       -34.95                   0
-29.300212833474585       -35.05                   0
-29.162415183400054       -34.95                   0
-29.160355015653668       -35.05                   0
-29.02254748467553        -34.95                   0
-29.02049719783275        -35.05                   0
-28.88267978595742        -34.95                   0
-28.88063938001183        -35.05                   0
-28.742812087239315       -34.95                   0
-28.74078156219091        -35.05                   0
-28.602944388514796       -34.95                   0
-28.600923744369993       -35.05                   0
-28.463076689790284       -34.95                   0
-28.46106592654908        -35.05                   0
-28.323208991072175       -34.95                   0
-28.321208108728158       -35.05                   0
-28.183341292354065       -34.95                   0
-28.181350290907247       -35.05                   0
-28.043473593629546       -34.95                   0
-28.041492473086333       -35.05                   0
-27.903605894905027       -34.95                   0
-27.90163465526541        -35.05                   0
-27.763738196186914       -34.95                   0
-27.761776837444497       -35.05                   0
-27.62387049746881        -34.95                   0
-27.621919019623576       -35.05                   0
-27.48400279874423        -34.95                   0
-27.48206120180266        -35.05                   0
-27.344135100019656       -34.95                   0
-27.342203383985254       -35.05                   0
-27.204267401301475       -34.95                   0
-27.202345566160897       -35.05                   0
-27.064399702583298       -34.95                   0
-27.06248774833653        -35.05                   0
-26.924532003858715       -34.95                   0
-26.922629930519086       -35.05                   0
-26.784664305134132       -34.95                   0
-26.782772112701643       -35.05                   0
-26.644796606415955       -34.95                   0
-26.642914294877297       -35.05                   0
-26.50492890769777        -34.95                   0
-26.50305647705294        -35.05                   0
-26.365061208973206       -34.95                   0
-26.363198659235493       -35.05                   0
-26.225193510248634       -34.95                   0
-26.223340841418054       -35.05                   0
-26.085325811530446       -34.95                   0
-26.0834830235937         -35.05                   0
-25.945458112812265       -34.95                   0
-25.943625205769344       -35.05                   0
-25.805590414087686       -34.95                   0
-25.803767387951893       -35.05                   0
-25.665722715363117       -34.95                   0
-25.66390957013444        -35.05                   0
-25.525855016644933       -34.95                   0
-25.52405175231012        -35.05                   0
-25.385987317926745       -34.95                   0
-25.384193934485786       -35.05                   0
-25.24611961920224        -34.95                   0
-25.244336116668382       -35.05                   0
-25.106251920477725       -34.95                   0
-25.104478298850974       -35.05                   0
-24.96638422175954        -34.95                   0
-24.964620481026635       -35.05                   0
-24.826516523041356       -34.95                   0
-24.8247626632023         -35.05                   0
-24.686648824316855       -34.95                   0
-24.684904845384885       -35.05                   0
-24.546781125592343       -34.95                   0
-24.545047027567477       -35.05                   0
-24.406913426874155       -34.95                   0
-24.405189209743163       -35.05                   0
-24.26704572815597        -34.95                   0
-24.26533139191885        -35.05                   0
-24.127178029431466       -34.95                   0
-24.125473574101427       -35.05                   0
-23.98731033070696        -34.95                   0
-23.985615756284005       -35.05                   0
-23.84744263198877        -34.95                   0
-23.845757938459684       -35.05                   0
-23.70757493327057        -34.95                   0
-23.705900120635363       -35.05                   0
-23.567707234546077       -34.95                   0
-23.56604230281794        -35.05                   0
-23.427839535821583       -34.95                   0
-23.426184485000526       -35.05                   0
-23.287971837103377       -34.95                   0
-23.286326667176226       -35.05                   0
-23.14810413838518        -34.95                   0
-23.146468849351926       -35.05                   0
-23.0082364396607         -34.95                   0
-23.00661103153449        -35.05                   0
-22.868368740936216       -34.95                   0
-22.866753213717054       -35.05                   0
-22.72850104221805        -34.95                   0
-22.726895395892747       -35.05                   0
-22.588633343499893       -34.95                   0
-22.58703757806844        -35.05                   0
-22.448765644775413       -34.95                   0
-22.447179760251018       -35.05                   0
-22.308897946050948       -34.95                   0
-22.30732194243359        -35.05                   0
-22.169030247332778       -34.95                   0
-22.16746412460929        -35.05                   0
-22.029162548614607       -34.95                   0
-22.02760630678499        -35.05                   0
-21.889294849890124       -34.95                   0
-21.887748488967546       -35.05                   0
-21.749427151165644       -34.95                   0
-21.747890671150103       -35.05                   0
-21.609559452447478       -34.95                   0
-21.60803285332583        -35.05                   0
-21.469691753729315       -34.95                   0
-21.468175035501552       -35.05                   0
-21.329824055004842       -34.95                   0
-21.328317217684088       -35.05                   0
-21.189956356280362       -34.95                   0
-21.188459399866616       -35.05                   0
-21.0500886575622         -34.95                   0
-21.048601582042345       -35.05                   0
-20.910220958844036       -34.95                   0
-20.908743764218073       -35.05                   0
-20.770353260119553       -34.95                   0
-20.768885946400623       -35.05                   0
-20.630485561395062       -34.95                   0
-20.62902812858318        -35.05                   0
-20.490617862676906       -34.95                   0
-20.489170310758887       -35.05                   0
-20.350750163958747       -34.95                   0
-20.349312492934587       -35.05                   0
-20.210882465234263       -34.95                   0
-20.20945467511713        -35.05                   0
-20.071014766509773       -34.95                   0
-20.069596857299665       -35.05                   0
-19.931147067791624       -34.95                   0
-19.929739039475336       -35.05                   0
-19.79127936907347        -34.95                   0
-19.789881221651008       -35.05                   0
-19.65141167034898        -34.95                   0
-19.650023403833558       -35.05                   0
-19.511543971624487       -34.95                   0
-19.510165586016107       -35.05                   0
-19.371676272906328       -34.95                   0
-19.370307768191786       -35.05                   0
-19.231808574188175       -34.95                   0
-19.230449950367465       -35.05                   0
-19.091940875463678       -34.95                   0
-19.09059213255           -35.05                   0
-18.95207317673919        -34.95                   0
-18.950734314732543       -35.05                   0
-18.812205478021028       -34.95                   0
-18.81087649690822        -35.05                   0
-18.67233777930287        -34.95                   0
-18.6710186790839         -35.05                   0
-18.532470080578385       -34.95                   0
-18.53116086126645        -35.05                   0
-18.392602381853898       -34.95                   0
-18.391303043449          -35.05                   0
-18.25273468313575        -34.95                   0
-18.25144522562467        -35.05                   0
-18.112866984417593       -34.95                   0
-18.111587407800343       -35.05                   0
-17.972999285693113       -34.95                   0
-17.97172958998288        -35.05                   0
-17.833131586968634       -34.95                   0
-17.83187177216542        -35.05                   0
-17.693263888250442       -34.95                   0
-17.69201395434112        -35.05                   0
-17.553396189532258       -34.95                   0
-17.552156136516828       -35.05                   0
-17.413528490807774       -34.95                   0
-17.412298318699385       -35.05                   0
-17.273660792083284       -34.95                   0
-17.27244050088194        -35.05                   0
-17.13379309336511        -34.95                   0
-17.132582683057628       -35.05                   0
-16.993925394646936       -34.95                   0
-16.992724865233313       -35.05                   0
-16.854057695922442       -34.95                   0
-16.85286704741587        -35.05                   0
-16.71418999719795        -34.95                   0
-16.713009229598427       -35.05                   0
-16.574322298479775       -34.95                   0
-16.573151411774113       -35.05                   0
-16.4344545997616         -34.95                   0
-16.4332935939498         -35.05                   0
-16.294586901037107       -34.95                   0
-16.293435776132362       -35.05                   0
-16.154719202312613       -34.95                   0
-16.153577958314926       -35.05                   0
-16.014851503594443       -34.95                   0
-16.013720140490605       -35.05                   0
-15.874983804876273       -34.95                   0
-15.873862322666282       -35.05                   0
-15.73511610615177        -34.95                   0
-15.734004504848848       -35.05                   0
-15.595248407427265       -34.95                   0
-15.59414668703141        -35.05                   0
-15.455380708709097       -34.95                   0
-15.454288869207097       -35.05                   0
-15.315513009990934       -34.95                   0
-15.314431051382785       -35.05                   0
-15.175645311266441       -34.95                   0
-15.174573233565342       -35.05                   0
-15.03577761254195        -34.95                   0
-15.034715415747895       -35.05                   0
-14.895909913823765       -34.95                   0
-14.894857597923583       -35.05                   0
-14.756042215105584       -34.95                   0
-14.754999780099268       -35.05                   0
-14.616174516381097       -34.95                   0
-14.615141962281816       -35.05                   0
-14.476306817656614       -34.95                   0
-14.475284144464368       -35.05                   0
-14.336439118938433       -34.95                   0
-14.335426326640075       -35.05                   0
-14.196571420220252       -34.95                   0
-14.195568508815782       -35.05                   0
-14.056703721495763       -34.95                   0
-14.05571069099832        -35.05                   0
-13.916836022771273       -34.95                   0
-13.915852873180851       -35.05                   0
-13.7769683240531         -34.95                   0
-13.77599505535656        -35.05                   0
-13.637100625334925       -34.95                   0
-13.636137237532267       -35.05                   0
-13.497232926610431       -34.95                   0
-13.49627941971481        -35.05                   0
-13.357365227885934       -34.95                   0
-13.35642160189735        -35.05                   0
-13.217497529167765       -34.95                   0
-13.21656378407305        -35.05                   0
-13.077629830449602       -34.95                   0
-13.076705966248753       -35.05                   0
-12.937762131725094       -34.95                   0
-12.936848148431295       -35.05                   0
-12.797894433000586       -34.95                   0
-12.796990330613836       -35.05                   0
-12.658026734282418       -34.95                   0
-12.657132512789532       -35.05                   0
-12.518159035564253       -34.95                   0
-12.517274694965225       -35.05                   0
-12.378291336839725       -34.95                   0
-12.377416877147766       -35.05                   0
-12.238423638115199       -34.95                   0
-12.237559059330307       -35.05                   0
-12.098555939397036       -34.95                   0
-12.097701241505993       -35.05                   0
-11.958688240678875       -34.95                   0
-11.957843423681679       -35.05                   0
-11.81882054195434        -34.95                   0
-11.81798560586421        -35.05                   0
-11.67895284322981        -34.95                   0
-11.678127788046744       -35.05                   0
-11.539085144511647       -34.95                   0
-11.538269970222453       -35.05                   0
-11.399217445793484       -34.95                   0
-11.398412152398164       -35.05                   0
-11.259349747068962       -34.95                   0
-11.25855433458068        -35.05                   0
-11.119482048344437       -34.95                   0
-11.1186965167632         -35.05                   0
-10.979614349626274       -34.95                   0
-10.978838698938908       -35.05                   0
-10.839746650908106       -34.95                   0
-10.838980881114615       -35.05                   0
-10.699878952183582       -34.95                   0
-10.699123063297135       -35.05                   0
-10.56001125345906        -34.95                   0
-10.55926524547965        -35.05                   0
-10.42014355474089        -34.95                   0
-10.41940742765537        -35.05                   0
-10.280275856022719       -34.95                   0
-10.279549609831086       -35.05                   0
-10.140408157298214       -34.95                   0
-10.139691792013606       -35.05                   0
-10.000540458573703       -34.95                   0
-9.999833974196122        -35.05                   0
-9.860672759855548        -34.95                   0
-9.859976156371856        -35.05                   0
-9.720805061137396        -34.95                   0
-9.720118338547586        -35.05                   0
-9.580937362412875        -34.95                   0
-9.580260520730114        -35.05                   0
-9.441069663688355        -34.95                   0
-9.440402702912637        -35.05                   0
-9.301201964970215        -34.95                   0
-9.300544885088364        -35.05                   0
-9.16133426625207         -34.95                   0
-9.160687067264087        -35.05                   0
-9.021466567527535        -34.95                   0
-9.020829249446614        -35.05                   0
-8.881598868803009        -34.95                   0
-8.88097143162914         -35.05                   0
-8.741731170084876        -34.95                   0
-8.741113613804863        -35.05                   0
-8.601863471366743        -34.95                   0
-8.60125579598059         -35.05                   0
-8.461995772642204        -34.95                   0
-8.461397978163129        -35.05                   0
-8.322128073917668        -34.95                   0
-8.32154016034567         -35.05                   0
-8.182260375199537        -34.95                   0
-8.181682342521372        -35.05                   0
-8.042392676481413        -34.95                   0
-8.041824524697075        -35.05                   0
-7.902524977756871        -34.95                   0
-7.901966706879632        -35.05                   0
-7.762657279032332        -34.95                   0
-7.762108889062189        -35.05                   0
-7.622789580314201        -34.95                   0
-7.622251071237875        -35.05                   0
-7.482921881596064        -34.95                   0
-7.48239325341356         -35.05                   0
-7.343054182871519        -34.95                   0
-7.342535435596124        -35.05                   0
-7.2031864841469755       -34.95                   0
-7.202677617778688        -35.05                   0
-7.063318785428839        -34.95                   0
-7.062819799954367        -35.05                   0
-6.9234510867107          -34.95                   0
-6.9229619821300465       -35.05                   0
-6.7835833879861545       -34.95                   0
-6.78310416431261         -35.05                   0
-6.6437156892616045       -34.95                   0
-6.643246346495174        -35.05                   0
-6.503847990543473        -34.95                   0
-6.503388528670861        -35.05                   0
-6.363980291825336        -34.95                   0
-6.363530710846548        -35.05                   0
-6.22411259310079         -34.95                   0
-6.223672893029111        -35.05                   0
-6.084244894376241        -34.95                   0
-6.083815075211675        -35.05                   0
-5.944377195658104        -34.95                   0
-5.943957257387346        -35.05                   0
-5.804509496939964        -34.95                   0
-5.804099439563016        -35.05                   0
-5.664641798215426        -34.95                   0
-5.664241621745596        -35.05                   0
-5.524774099490884        -34.95                   0
-5.524383803928174        -35.05                   0
-5.38490640077274         -34.95                   0
-5.384525986103839        -35.05                   0
-5.245038702054593        -34.95                   0
-5.244668168279501        -35.05                   0
-5.105171003330062        -34.95                   0
-5.104810350462081        -35.05                   0
-4.965303304605529        -34.95                   0
-4.964952532644659        -35.05                   0
-4.825435605887348        -34.95                   0
-4.825094714820308        -35.05                   0
-4.685567907169165        -34.95                   0
-4.685236896995953        -35.05                   0
-4.545700208444639        -34.95                   0
-4.545379079178526        -35.05                   0
-4.4058325097201205       -34.95                   0
-4.4055212613611          -35.05                   0
-4.26596481100194         -34.95                   0
-4.265663443536745        -35.05                   0
-4.126097112283757        -34.95                   0
-4.125805625712394        -35.05                   0
-3.9862294135592364       -34.95                   0
-3.985947807894973        -35.05                   0
-3.846361714834716        -34.95                   0
-3.8460899900775516       -35.05                   0
-3.706494016116528        -34.95                   0
-3.706232172253193        -35.05                   0
-3.566626317398338        -34.95                   0
-3.566374354428831        -35.05                   0
-3.4267586186738157       -34.95                   0
-3.426516536611418        -35.05                   0
-3.2868909199492986       -34.95                   0
-3.2866587187940084       -35.05                   0
-3.1470232212311213       -34.95                   0
-3.1468009009696303       -35.05                   0
-3.0071555225129405       -34.95                   0
-3.006943083145254        -35.05                   0
-2.867287823788409        -34.95                   0
-2.8670852653278516       -35.05                   0
-2.7274201250638797       -34.95                   0
-2.727227447510444        -35.05                   0
-2.5875524263457095       -34.95                   0
-2.587369629686087        -35.05                   0
-2.4476847276275393       -34.95                   0
-2.447511811861723        -35.05                   0
-2.3078170289030098       -34.95                   0
-2.307653994044294        -35.05                   0
-2.1679493301784802       -34.95                   0
-2.167796176226865        -35.05                   0
-2.028081631460317        -34.95                   0
-2.0279383584025226       -35.05                   0
-1.8882139327421614       -34.95                   0
-1.8880805405781802       -35.05                   0
-1.7483462340176317       -34.95                   0
-1.748222722760751        -35.05                   0
-1.6084785352931021       -34.95                   0
-1.608364904943322        -35.05                   0
-1.4686108365749355       -34.95                   0
-1.4685070871189723       -35.05                   0
-1.328743137856776        -34.95                   0
-1.3286492692946155       -35.05                   0
-1.1888754391322465       -34.95                   0
-1.1887914514771865       -35.05                   0
-1.049007740407717        -34.95                   0
-1.0489336336597574       -35.05                   0
-0.909140041689561        -34.95                   0
-0.9090758158354078       -35.05                   0
-0.7692723429714121       -34.95                   0
-0.7692179980110581       -35.05                   0
-0.6294046442468684       -34.95                   0
-0.629360180193629        -35.05                   0
-0.48953694552232463      -34.95                   0
-0.48950236237620004      -35.05                   0
-0.3496692468041793       -34.95                   0
-0.34964454455185745      -35.05                   0
-0.20980154808603402      -34.95                   0
-0.20978672672750778      -35.05                   0
-0.06992890891006454      -35.05                   0
-0.06993384936149383      -34.95                   0
0.06992890890737868       -35.05                   0
0.06993384936305347       -34.95                   0
0.20978672673169282       -35.05                   0
0.20980154808119522       -34.95                   0
0.3496445445560141        -35.05                   0
0.349669246799337         -34.95                   0
0.4895023623734716        -35.05                   0
0.48953694552390203       -34.95                   0
0.629360180190929         -35.05                   0
0.6294046442484671        -34.95                   0
0.7692179980152432        -35.05                   0
0.7692723429665804        -34.95                   0
0.9090758158395573        -35.05                   0
0.909140041684701         -34.95                   0
1.0489336336570112        -35.05                   0
1.0490077404092801        -34.95                   0
1.1887914514744722        -35.05                   0
1.1888754391338594        -34.95                   0
1.3286492692987792        -35.05                   0
1.3287431378519585        -34.95                   0
1.4685070871230934        -35.05                   0
1.4686108365700647        -34.95                   0
1.608364904940558         -35.05                   0
1.6084785352946513        -34.95                   0
1.7482227227580225        -35.05                   0
1.7483462340192446        -34.95                   0
1.8880805405823227        -35.05                   0
1.8882139327373508        -34.95                   0
2.0279383584066224        -35.05                   0
2.028081631455457         -34.95                   0
2.167796176224087         -35.05                   0
2.1679493301800434        -34.95                   0
2.3076539940415586        -35.05                   0
2.307817028904637         -34.95                   0
2.447511811865862         -35.05                   0
2.447684727622729         -34.95                   0
2.5873696296901656        -35.05                   0
2.587552426340821         -34.95                   0
2.72722744750763          -35.05                   0
2.7274201250654215        -34.95                   0
2.8670852653251018        -35.05                   0
2.867287823790015         -34.95                   0
3.0069430831494035        -35.05                   0
3.007155522508107         -34.95                   0
3.1468009009737106        -35.05                   0
3.1470232212261995        -34.95                   0
3.286658718791181         -35.05                   0
3.2868909199507836        -34.95                   0
3.426516536608652         -35.05                   0
3.426758618675365         -34.95                   0
3.566374354432943         -35.05                   0
3.566626317393471         -34.95                   0
3.7062321722572324        -35.05                   0
3.7064940161115794        -34.95                   0
3.846089990074722         -35.05                   0
3.8463617148361475        -34.95                   0
3.985947807892208         -35.05                   0